name,smiles,tg_exp,tg_md,std
Poly(oxyterephthaloyloxy-2-methyl-1-4-phenyleneisopropylidene-3-methyl-1-4-phenylene),*OC(=O)c1ccc(C(=O)Oc2ccc(C(C)(C)c3ccc(*)c(C)c3)cc2C)cc1,444.0000,510.1898,30.2829
Poly[1-1-cyclohexane bis(4-phenyl)carbonate],*OC(=O)Oc1ccc(C2(c3ccc(*)cc3)CCCCC2)cc1,444.0000,452.0980,85.1031
Poly[1-1-(1-phenylethane) bis(4-phenyl)carbonate],*OC(=O)Oc1ccc(C(C)(c2ccccc2)c2ccc(*)cc2)cc1,449.0000,465.2108,42.8953
Poly[2-2-propane bis{4-(2-6-dimethylphenyl)} carbonate],*OC(=O)Oc1cc(C)c(C(C)(C)c2c(C)cc(*)cc2C)c(C)c1,473.0000,510.7265,19.3820
Poly(bisphenol-A terephthalate),*OC(=O)c1ccc(C(=O)Oc2ccc(C(C)(C)c3ccc(*)cc3)cc2)cc1,478.0000,469.8574,56.2211
Poly[N-N'-(m-m'-oxydiphenylene-oxy-m-phenylene)pyromellitimide],*Oc1cccc(Oc2cccc(-n3c(=O)c4cc5c(=O)n(-c6cccc(*)c6)c(=O)c5cc4c3=O)c2)c1,494.0000,566.4301,29.1849
Polyetherimide 3,*Oc1ccc(Oc2ccc(Oc3ccc4c(c3)C(=O)N(c3cccc(N5C(=O)c6ccc(*)cc6C5=O)c3)C4=O)cc2)cc1,500.0000,585.0984,62.5599
Polycarbonate 2,*OC(=O)Oc1ccc(C2(c3ccc(*)cc3)CC3CCC2C3)cc1,505.0000,533.3223,58.8594
Polyetherimide 4,*Oc1ccc(C(=O)c2ccc(Oc3ccc4c(c3)C(=O)N(c3cccc(N5C(=O)c6ccc(*)cc6C5=O)c3)C4=O)cc2)cc1,512.0000,543.1403,103.6719
Polyimide 10,*c1cccc(C(=O)c2cccc(N3C(=O)c4ccc(C(=O)c5ccc6c(c5)C(=O)N(*)C6=O)cc4C3=O)c2)c1,513.0000,596.9370,129.8982
Polycarbonate 3,*OC(=O)Oc1ccc(C2(c3ccc(*)cc3)CC3CC2C2CCCC32)cc1,520.0000,547.4731,50.9822
Polyetherimide 5,*Oc1ccc(-c2ccc(Oc3ccc4c(c3)C(=O)N(c3cccc(N5C(=O)c6ccc(*)cc6C5=O)c3)C4=O)cc2)cc1,520.0000,595.1723,52.2529
Polyquinoline 5,*c1ccc(Oc2ccc(-c3cc(-c4ccccc4)c4cc(Oc5ccc6nc(*)cc(-c7ccccc7)c6c5)ccc4n3)cc2)cc1,539.0000,513.3954,41.0937
Polyquinoline 1,*c1cccc(-c2cc(-c3ccc(Oc4ccc(-c5cc(*)nc6ccccc56)cc4)cc3)c3ccccc3n2)c1,541.0000,587.7083,23.4635
Poly[3-5-(4-phenyl-1-2-4-triazole)-1-4-phenylene-3-5-(4-phenyl-1-2-4-triazole)-1-3-phenylene],*c1ccc(-c2nnc(-c3cccc(-c4nnc(*)n4-c4ccccc4)c3)n2-c2ccccc2)cc1,543.0000,523.5708,159.3044
Poly(m-phenylene isophthalamide),*Nc1cccc(NC(=O)c2cccc(C(*)=O)c2)c1,545.0000,565.6099,53.2952
Polyquinoline 2,*c1cccc(-c2nc3ccccc3c(-c3ccc(Oc4ccc(-c5c(-c6ccccc6)c(*)nc6ccccc56)cc4)cc3)c2-c2ccccc2)c1,546.0000,609.7934,50.8270
Torlon,*NC(=O)c1ccc2c(c1)C(=O)N(c1ccc(Cc3ccc(*)cc3)cc1)C2=O,550.0000,553.5590,118.6357
Polyquinoline 9,*c1ccc(-c2cc(-c3ccccc3)c3cc(Oc4ccc5nc(*)cc(-c6ccccc6)c5c4)ccc3n2)cc1,573.0000,518.9018,103.8327
Polyquinoline 6,*c1ccc(Oc2ccc(-c3nc4ccc(Oc5ccc6nc(*)c(-c7ccccc7)c(-c7ccccc7)c6c5)cc4c(-c4ccccc4)c3-c3ccccc3)cc2)cc1,578.0000,572.2697,62.5190
Poly(quinoxaline-2-7-diylquinoxaline-7-2-diyl-p-terphenyl-4-4'-ylene),*c1ccc(-c2ccc(-c3ccc(-c4cnc5ccc(-c6ccc7ncc(*)nc7c6)cc5n4)cc3)cc2)cc1,578.0000,485.4071,10.7907
Poly(quinoxaline-2-7-diyloxyquinoxaline-7-2-diyl-1-4-phenylene),*c1ccc(-c2cnc3ccc(Oc4ccc5ncc(*)nc5c4)cc3n2)cc1,579.0000,494.6170,52.7984
Polyquinoline 7,*c1ccc(-c2ccc(-c3cc(-c4ccccc4)c4cc(Oc5ccc6nc(*)cc(-c7ccccc7)c6c5)ccc4n3)cc2)cc1,581.0000,552.9161,52.6617
Poly(quinoxaline-2-7-diylcarbonylquinoxaline-7-2-diyl-1-4-phenylene),*c1ccc(-c2cnc3ccc(C(=O)c4ccc5ncc(*)nc5c4)cc3n2)cc1,591.0000,546.6202,36.2660
Polyquinoline 3,*c1ccc(Oc2ccc(-c3cc(-c4ccc(Oc5ccc(-c6cc(*)nc7ccccc67)cc5)cc4)c4ccccc4n3)cc2)cc1,599.0000,538.7431,57.8027
Poly(p-phenylene terephthalamide),*Nc1ccc(NC(=O)c2ccc(C(*)=O)cc2)cc1,600.0000,626.3676,13.7236
Vitrimer-DGEBA-AA,*CC(O)COc1ccc(C(C)(C)c2ccc(OCC(O)COC(=O)CCCCC(=O)O*)cc2)cc1,317.0000,393.2121,11.6599
Vitrimer-DGEAC-SA,*CC(O)COC(=O)C1CC2OC2CC1C(=O)OCC(O)COC(=O)CCCCCCCCC(=O)O*,304.0000,370.6853,20.8773
Vitrimer-DGEBA-SA,*CC(O)COc1ccc(C(C)(C)c2ccc(OCC(O)COC(=O)CCCCCCCCC(=O)O*)cc2)cc1,323.0000,377.0222,12.9010